{
  "job_info": {
    "source": "space_group_cubic_fcc",
    "target": "space_group_orthorhombic",
    "step": "step_950",
    "trajectory": "trajectory_0",
    "structure_file": "generated_structures/cross_conditioned_late_insertion/step_950/space_group_cubic_fcc/space_group_orthorhombic/trajectory_0/generated_crystals.extxyz"
  },
  "summary": {
    "total_structures": 1,
    "calculated_structures": 1,
    "successful_calculations": 1,
    "failed_calculations": 0
  },
  "results": [
    {
      "structure_id": 0,
      "formula": "H5HgOTe",
      "num_atoms": 8,
      "elements": [
        "O",
        "H",
        "Te",
        "Hg"
      ],
      "scf_energy_ev": -5222.3665194106825,
      "estimated_band_gap_ev": 3.7275703866601058,
      "is_metal": false,
      "calculation_time_seconds": 11.322748184204102,
      "converged": true,
      "source_condition": "space_group_cubic_fcc",
      "target_condition": "space_group_orthorhombic",
      "step": "step_950",
      "trajectory": "trajectory_0"
    }
  ]
}