{
  "job_info": {
    "source": "dft_band_gap_insulator",
    "target": "dft_band_gap_wide_semiconductor",
    "step": "step_800",
    "trajectory": "trajectory_0",
    "structure_file": "generated_structures/cross_conditioned_late_insertion/step_800/dft_band_gap_insulator/dft_band_gap_wide_semiconductor/trajectory_0/generated_crystals.extxyz"
  },
  "summary": {
    "total_structures": 1,
    "calculated_structures": 1,
    "successful_calculations": 0,
    "failed_calculations": 1
  },
  "results": [
    {
      "structure_id": 0,
      "formula": "O4",
      "num_atoms": 4,
      "elements": [
        "O"
      ],
      "error": "'symbols'",
      "converged": false,
      "source_condition": "dft_band_gap_insulator",
      "target_condition": "dft_band_gap_wide_semiconductor",
      "step": "step_800",
      "trajectory": "trajectory_0"
    }
  ]
}