{
  "baseline_results": {
    "dft_band_gap_insulator": {
      "timestep": 1000,
      "source_condition": "dft_band_gap_insulator",
      "target_condition": "dft_band_gap_insulator",
      "trajectory_idx": 0,
      "space_group_number": 156,
      "space_group_symbol": "P3m1",
      "crystal_system": "trigonal",
      "lattice_a": 3.8314597898004217,
      "lattice_b": 3.8292122646548252,
      "lattice_c": 6.035726070404053,
      "lattice_alpha": 90.03078616908195,
      "lattice_beta": 89.72947920722483,
      "lattice_gamma": 119.9106769608427,
      "volume": 76.75704856512412,
      "density": 4.310365237945996,
      "formula": "AlGe",
      "num_atoms": 4,
      "valid": true
    },
    "energy_above_hull_metastable": {
      "timestep": 1000,
      "source_condition": "energy_above_hull_metastable",
      "target_condition": "energy_above_hull_metastable",
      "trajectory_idx": 0,
      "space_group_number": 79,
      "space_group_symbol": "I4",
      "crystal_system": "tetragonal",
      "lattice_a": 4.59150036324135,
      "lattice_b": 5.6340712058233775,
      "lattice_c": 5.622466087341309,
      "lattice_alpha": 80.44012786372365,
      "lattice_beta": 66.02499961928697,
      "lattice_gamma": 66.33843568763955,
      "volume": 121.7247054410147,
      "density": 3.925336256727568,
      "formula": "Sc4TiC5",
      "num_atoms": 10,
      "valid": true
    },
    "space_group_cubic_fcc": {
      "timestep": 1000,
      "source_condition": "space_group_cubic_fcc",
      "target_condition": "space_group_cubic_fcc",
      "trajectory_idx": 0,
      "space_group_number": 38,
      "space_group_symbol": "Amm2",
      "crystal_system": "orthorhombic",
      "lattice_a": 5.3939003681117486,
      "lattice_b": 7.027309002483304,
      "lattice_c": 7.02586555480957,
      "lattice_alpha": 117.99498594944836,
      "lattice_beta": 90.07597469667238,
      "lattice_gamma": 90.26588808922057,
      "volume": 235.14667495962138,
      "density": 10.238346517891292,
      "formula": "KHg6Pb",
      "num_atoms": 8,
      "valid": true
    }
  },
  "insertion_results": {
    "dft_band_gap": [
      {
        "category": "dft_band_gap",
        "timestep": 600,
        "source_condition": "dft_band_gap_insulator",
        "target_condition": "dft_band_gap_metallic",
        "trajectory_idx": 0,
        "space_group_number": 38,
        "space_group_symbol": "Amm2",
        "crystal_system": "orthorhombic",
        "lattice_a": 4.114432386785183,
        "lattice_b": 4.482191499869337,
        "lattice_c": 5.981883525848389,
        "lattice_alpha": 90.32889659808096,
        "lattice_beta": 110.58582285531922,
        "lattice_gamma": 90.51262869076434,
        "volume": 103.26310694875276,
        "density": 9.759035071006597,
        "formula": "Eu2AgPt",
        "num_atoms": 4,
        "valid": true
      },
      {
        "category": "dft_band_gap",
        "timestep": 800,
        "source_condition": "dft_band_gap_insulator",
        "target_condition": "dft_band_gap_metallic",
        "trajectory_idx": 0,
        "space_group_number": 58,
        "space_group_symbol": "Pnnm",
        "crystal_system": "orthorhombic",
        "lattice_a": 3.419656294974063,
        "lattice_b": 4.312228276008077,
        "lattice_c": 5.315080642700195,
        "lattice_alpha": 90.19828288709877,
        "lattice_beta": 90.19264800280492,
        "lattice_gamma": 89.37661793675966,
        "volume": 78.37243717499011,
        "density": 1.3559679773621636,
        "formula": "O2",
        "num_atoms": 4,
        "valid": true
      },
      {
        "category": "dft_band_gap",
        "timestep": 900,
        "source_condition": "dft_band_gap_insulator",
        "target_condition": "dft_band_gap_metallic",
        "trajectory_idx": 0,
        "space_group_number": 7,
        "space_group_symbol": "Pc",
        "crystal_system": "monoclinic",
        "lattice_a": 3.2829103929993684,
        "lattice_b": 3.43620159920982,
        "lattice_c": 3.5913023948669434,
        "lattice_alpha": 67.88152724850723,
        "lattice_beta": 88.93644633478654,
        "lattice_gamma": 87.96730418359375,
        "volume": 37.506917019607414,
        "density": 1.771476684818159,
        "formula": "HF",
        "num_atoms": 4,
        "valid": true
      },
      {
        "category": "dft_band_gap",
        "timestep": 950,
        "source_condition": "dft_band_gap_insulator",
        "target_condition": "dft_band_gap_metallic",
        "trajectory_idx": 0,
        "space_group_number": 1,
        "space_group_symbol": "P1",
        "crystal_system": "triclinic",
        "lattice_a": 3.7647577578998748,
        "lattice_b": 4.134783493727817,
        "lattice_c": 3.3528807163238525,
        "lattice_alpha": 89.41016788974657,
        "lattice_beta": 110.04053498756284,
        "lattice_gamma": 114.03364076285861,
        "volume": 44.27027782998884,
        "density": 0.518931893983137,
        "formula": "BH3",
        "num_atoms": 4,
        "valid": true
      },
      {
        "category": "dft_band_gap",
        "timestep": 600,
        "source_condition": "dft_band_gap_insulator",
        "target_condition": "dft_band_gap_narrow_semiconductor",
        "trajectory_idx": 0,
        "space_group_number": 25,
        "space_group_symbol": "Pmm2",
        "crystal_system": "orthorhombic",
        "lattice_a": 4.275677986531188,
        "lattice_b": 4.281055799203837,
        "lattice_c": 4.2876081466674805,
        "lattice_alpha": 89.52715533324701,
        "lattice_beta": 89.7615674614767,
        "lattice_gamma": 89.7882666487018,
        "volume": 78.47828522473984,
        "density": 5.151097459589773,
        "formula": "DyAl3",
        "num_atoms": 4,
        "valid": true
      },
      {
        "category": "dft_band_gap",
        "timestep": 800,
        "source_condition": "dft_band_gap_insulator",
        "target_condition": "dft_band_gap_narrow_semiconductor",
        "trajectory_idx": 0,
        "space_group_number": 8,
        "space_group_symbol": "Cm",
        "crystal_system": "monoclinic",
        "lattice_a": 5.660001870819927,
        "lattice_b": 4.104762504857984,
        "lattice_c": 4.107513427734375,
        "lattice_alpha": 59.53210277452091,
        "lattice_beta": 68.75673302127525,
        "lattice_gamma": 68.43156016562419,
        "volume": 74.62761244395907,
        "density": 2.7957959815778106,
        "formula": "SrC2N",
        "num_atoms": 4,
        "valid": true
      },
      {
        "category": "dft_band_gap",
        "timestep": 900,
        "source_condition": "dft_band_gap_insulator",
        "target_condition": "dft_band_gap_narrow_semiconductor",
        "trajectory_idx": 0,
        "space_group_number": 1,
        "space_group_symbol": "P1",
        "crystal_system": "triclinic",
        "lattice_a": 4.003406045562881,
        "lattice_b": 4.366448306597309,
        "lattice_c": 5.145049095153809,
        "lattice_alpha": 80.81507076450156,
        "lattice_beta": 77.01964452022307,
        "lattice_gamma": 69.20902179809319,
        "volume": 81.6179871832386,
        "density": 6.367967562310585,
        "formula": "MdPC2",
        "num_atoms": 4,
        "valid": true
      },
      {
        "category": "dft_band_gap",
        "timestep": 950,
        "source_condition": "dft_band_gap_insulator",
        "target_condition": "dft_band_gap_narrow_semiconductor",
        "trajectory_idx": 0,
        "space_group_number": 1,
        "space_group_symbol": "P1",
        "crystal_system": "triclinic",
        "lattice_a": 3.8996075368620384,
        "lattice_b": 4.511060542023661,
        "lattice_c": 4.049606800079346,
        "lattice_alpha": 101.2203172533854,
        "lattice_beta": 90.81790395595556,
        "lattice_gamma": 67.42595274867955,
        "volume": 64.37911308746745,
        "density": 7.9186081859399735,
        "formula": "MdNOF",
        "num_atoms": 4,
        "valid": true
      },
      {
        "category": "dft_band_gap",
        "timestep": 600,
        "source_condition": "dft_band_gap_insulator",
        "target_condition": "dft_band_gap_wide_semiconductor",
        "trajectory_idx": 0,
        "space_group_number": 8,
        "space_group_symbol": "Cm",
        "crystal_system": "monoclinic",
        "lattice_a": 4.2778578488657315,
        "lattice_b": 4.268123381209948,
        "lattice_c": 4.260713577270508,
        "lattice_alpha": 89.44860813127895,
        "lattice_beta": 89.55783653406328,
        "lattice_gamma": 89.75809086606222,
        "volume": 77.7873317256326,
        "density": 3.625826057769518,
        "formula": "YAl3",
        "num_atoms": 4,
        "valid": true
      },
      {
        "category": "dft_band_gap",
        "timestep": 800,
        "source_condition": "dft_band_gap_insulator",
        "target_condition": "dft_band_gap_wide_semiconductor",
        "trajectory_idx": 0,
        "space_group_number": 12,
        "space_group_symbol": "C2/m",
        "crystal_system": "monoclinic",
        "lattice_a": 3.9549737569470813,
        "lattice_b": 4.007955462858463,
        "lattice_c": 5.144826412200928,
        "lattice_alpha": 78.8858568253512,
        "lattice_beta": 79.80052140089511,
        "lattice_gamma": 79.15325855496198,
        "volume": 77.74994811195141,
        "density": 1.366824257735795,
        "formula": "O2",
        "num_atoms": 4,
        "valid": true
      },
      {
        "category": "dft_band_gap",
        "timestep": 900,
        "source_condition": "dft_band_gap_insulator",
        "target_condition": "dft_band_gap_wide_semiconductor",
        "trajectory_idx": 0,
        "space_group_number": 1,
        "space_group_symbol": "P1",
        "crystal_system": "triclinic",
        "lattice_a": 4.604273621143593,
        "lattice_b": 4.603761990919946,
        "lattice_c": 5.454097747802734,
        "lattice_alpha": 63.670387848112846,
        "lattice_beta": 90.09628085294364,
        "lattice_gamma": 68.84795477775378,
        "volume": 94.80955028436425,
        "density": 1.158510062105085,
        "formula": "HS",
        "num_atoms": 4,
        "valid": true
      },
      {
        "category": "dft_band_gap",
        "timestep": 950,
        "source_condition": "dft_band_gap_insulator",
        "target_condition": "dft_band_gap_wide_semiconductor",
        "trajectory_idx": 0,
        "space_group_number": 1,
        "space_group_symbol": "P1",
        "crystal_system": "triclinic",
        "lattice_a": 4.528476759076757,
        "lattice_b": 4.636847080783576,
        "lattice_c": 5.171841144561768,
        "lattice_alpha": 94.19940789796706,
        "lattice_beta": 122.8920556450636,
        "lattice_gamma": 65.50580303236498,
        "volume": 81.32547425183807,
        "density": 2.7754632687518326,
        "formula": "CsH3",
        "num_atoms": 4,
        "valid": true
      }
    ],
    "energy_above_hull": [
      {
        "category": "energy_above_hull",
        "timestep": 600,
        "source_condition": "energy_above_hull_metastable",
        "target_condition": "energy_above_hull_stable",
        "trajectory_idx": 0,
        "space_group_number": 8,
        "space_group_symbol": "Cm",
        "crystal_system": "monoclinic",
        "lattice_a": 3.2558341886207893,
        "lattice_b": 5.735307060376183,
        "lattice_c": 9.092366218566895,
        "lattice_alpha": 105.3555580838605,
        "lattice_beta": 89.59845567659447,
        "lattice_gamma": 106.89685967796406,
        "volume": 156.20363693752407,
        "density": 10.895899629384973,
        "formula": "Ta5C2S3",
        "num_atoms": 10,
        "valid": true
      },
      {
        "category": "energy_above_hull",
        "timestep": 800,
        "source_condition": "energy_above_hull_metastable",
        "target_condition": "energy_above_hull_stable",
        "trajectory_idx": 0,
        "space_group_number": 6,
        "space_group_symbol": "Pm",
        "crystal_system": "monoclinic",
        "lattice_a": 4.405711714332601,
        "lattice_b": 6.7324158295905105,
        "lattice_c": 6.707092761993408,
        "lattice_alpha": 90.19446482749312,
        "lattice_beta": 89.88339751863992,
        "lattice_gamma": 89.82717823486867,
        "volume": 198.93717006372458,
        "density": 3.1780125209395758,
        "formula": "Cs2AgH7",
        "num_atoms": 10,
        "valid": true
      },
      {
        "category": "energy_above_hull",
        "timestep": 900,
        "source_condition": "energy_above_hull_metastable",
        "target_condition": "energy_above_hull_stable",
        "trajectory_idx": 0,
        "space_group_number": 1,
        "space_group_symbol": "P1",
        "crystal_system": "triclinic",
        "lattice_a": 5.578685584825132,
        "lattice_b": 4.471866288221862,
        "lattice_c": 5.231258869171143,
        "lattice_alpha": 84.44873184559906,
        "lattice_beta": 83.07159509916657,
        "lattice_gamma": 97.21374777878208,
        "volume": 127.69438130728098,
        "density": 2.7659907343350327,
        "formula": "TeH5SO3",
        "num_atoms": 10,
        "valid": true
      },
      {
        "category": "energy_above_hull",
        "timestep": 950,
        "source_condition": "energy_above_hull_metastable",
        "target_condition": "energy_above_hull_stable",
        "trajectory_idx": 0,
        "space_group_number": 1,
        "space_group_symbol": "P1",
        "crystal_system": "triclinic",
        "lattice_a": 5.77171505661349,
        "lattice_b": 5.078446770831181,
        "lattice_c": 8.249789237976074,
        "lattice_alpha": 101.04073008426487,
        "lattice_beta": 100.69347684153007,
        "lattice_gamma": 103.14128595786647,
        "volume": 224.3841212243309,
        "density": 1.3024048992349153,
        "formula": "H3SCl2(OF)2",
        "num_atoms": 10,
        "valid": true
      },
      {
        "category": "energy_above_hull",
        "timestep": 600,
        "source_condition": "energy_above_hull_metastable",
        "target_condition": "energy_above_hull_unstable",
        "trajectory_idx": 0,
        "space_group_number": 8,
        "space_group_symbol": "Cm",
        "crystal_system": "monoclinic",
        "lattice_a": 3.904558057199585,
        "lattice_b": 3.923206571137119,
        "lattice_c": 10.022841453552246,
        "lattice_alpha": 90.29561308631344,
        "lattice_beta": 90.41301040964018,
        "lattice_gamma": 120.47586091165034,
        "volume": 132.311633859805,
        "density": 4.829220686245375,
        "formula": "NaCdF3",
        "num_atoms": 10,
        "valid": true
      },
      {
        "category": "energy_above_hull",
        "timestep": 800,
        "source_condition": "energy_above_hull_metastable",
        "target_condition": "energy_above_hull_unstable",
        "trajectory_idx": 0,
        "space_group_number": 1,
        "space_group_symbol": "P1",
        "crystal_system": "triclinic",
        "lattice_a": 3.9896631917446608,
        "lattice_b": 5.337923614116874,
        "lattice_c": 7.337246894836426,
        "lattice_alpha": 71.72967599032482,
        "lattice_beta": 68.90016070823023,
        "lattice_gamma": 74.16644809674426,
        "volume": 136.15635420457477,
        "density": 1.593710652997273,
        "formula": "SiB2AsH6",
        "num_atoms": 10,
        "valid": true
      },
      {
        "category": "energy_above_hull",
        "timestep": 900,
        "source_condition": "energy_above_hull_metastable",
        "target_condition": "energy_above_hull_unstable",
        "trajectory_idx": 0,
        "space_group_number": 1,
        "space_group_symbol": "P1",
        "crystal_system": "triclinic",
        "lattice_a": 5.143841588926431,
        "lattice_b": 6.03629561386395,
        "lattice_c": 7.1952362060546875,
        "lattice_alpha": 76.59751089859276,
        "lattice_beta": 97.03317079265226,
        "lattice_gamma": 73.95602451806461,
        "volume": 204.66257297902607,
        "density": 1.5987310452545997,
        "formula": "CsSiH6NO",
        "num_atoms": 10,
        "valid": true
      },
      {
        "category": "energy_above_hull",
        "timestep": 950,
        "source_condition": "energy_above_hull_metastable",
        "target_condition": "energy_above_hull_unstable",
        "trajectory_idx": 0,
        "space_group_number": 1,
        "space_group_symbol": "P1",
        "crystal_system": "triclinic",
        "lattice_a": 5.7419217139245395,
        "lattice_b": 5.606551064865102,
        "lattice_c": 6.623991012573242,
        "lattice_alpha": 77.29226456246958,
        "lattice_beta": 99.86253654507146,
        "lattice_gamma": 108.43030611055177,
        "volume": 196.15301359396796,
        "density": 1.4059638976423352,
        "formula": "H6S2BrO",
        "num_atoms": 10,
        "valid": true
      }
    ],
    "space_group": [
      {
        "category": "space_group",
        "timestep": 600,
        "source_condition": "space_group_cubic_fcc",
        "target_condition": "space_group_cubic_primitive",
        "trajectory_idx": 0,
        "space_group_number": 1,
        "space_group_symbol": "P1",
        "crystal_system": "triclinic",
        "lattice_a": 6.747216296998701,
        "lattice_b": 6.980264289824431,
        "lattice_c": 8.288376808166504,
        "lattice_alpha": 62.992292492218155,
        "lattice_beta": 76.23805931835868,
        "lattice_gamma": 69.66190288578782,
        "volume": 324.607197196988,
        "density": 4.4999304081348965,
        "formula": "Hg2SeBr5",
        "num_atoms": 8,
        "valid": true
      },
      {
        "category": "space_group",
        "timestep": 800,
        "source_condition": "space_group_cubic_fcc",
        "target_condition": "space_group_cubic_primitive",
        "trajectory_idx": 0,
        "space_group_number": 2,
        "space_group_symbol": "P-1",
        "crystal_system": "triclinic",
        "lattice_a": 5.398784374332941,
        "lattice_b": 4.197061793904192,
        "lattice_c": 4.974600791931152,
        "lattice_alpha": 73.87144605708943,
        "lattice_beta": 73.14035040222271,
        "lattice_gamma": 78.87907547556898,
        "volume": 102.85267087136452,
        "density": 0.1301841739215902,
        "formula": "H2",
        "num_atoms": 8,
        "valid": true
      },
      {
        "category": "space_group",
        "timestep": 900,
        "source_condition": "space_group_cubic_fcc",
        "target_condition": "space_group_cubic_primitive",
        "trajectory_idx": 0,
        "space_group_number": 8,
        "space_group_symbol": "Cm",
        "crystal_system": "monoclinic",
        "lattice_a": 4.74855635043595,
        "lattice_b": 4.707028671917777,
        "lattice_c": 6.477510929107666,
        "lattice_alpha": 79.08375448687819,
        "lattice_beta": 79.05508200925476,
        "lattice_gamma": 56.44402840595307,
        "volume": 117.82709136400311,
        "density": 3.5551977618718746,
        "formula": "ErH6Se",
        "num_atoms": 8,
        "valid": true
      },
      {
        "category": "space_group",
        "timestep": 950,
        "source_condition": "space_group_cubic_fcc",
        "target_condition": "space_group_cubic_primitive",
        "trajectory_idx": 0,
        "space_group_number": 1,
        "space_group_symbol": "P1",
        "crystal_system": "triclinic",
        "lattice_a": 5.855613944287671,
        "lattice_b": 4.8771472550944,
        "lattice_c": 4.956426620483398,
        "lattice_alpha": 101.60519007038108,
        "lattice_beta": 84.79647758433688,
        "lattice_gamma": 77.11202204933963,
        "volume": 133.79333071776523,
        "density": 4.505899903106148,
        "formula": "KLiMdH2F3",
        "num_atoms": 8,
        "valid": true
      },
      {
        "category": "space_group",
        "timestep": 600,
        "source_condition": "space_group_cubic_fcc",
        "target_condition": "space_group_hexagonal",
        "trajectory_idx": 0,
        "space_group_number": 5,
        "space_group_symbol": "C2",
        "crystal_system": "monoclinic",
        "lattice_a": 5.4817837975849395,
        "lattice_b": 5.4837815579055595,
        "lattice_c": 5.501366138458252,
        "lattice_alpha": 59.58144472230974,
        "lattice_beta": 59.7089330351738,
        "lattice_gamma": 59.46295375484227,
        "volume": 115.83283875639235,
        "density": 6.64710271976898,
        "formula": "WO3",
        "num_atoms": 8,
        "valid": true
      },
      {
        "category": "space_group",
        "timestep": 800,
        "source_condition": "space_group_cubic_fcc",
        "target_condition": "space_group_hexagonal",
        "trajectory_idx": 0,
        "space_group_number": 1,
        "space_group_symbol": "P1",
        "crystal_system": "triclinic",
        "lattice_a": 4.597274152916318,
        "lattice_b": 5.405935325244547,
        "lattice_c": 6.049790382385254,
        "lattice_alpha": 79.6765196843482,
        "lattice_beta": 82.75042648469586,
        "lattice_gamma": 77.12167357867922,
        "volume": 143.61374952135967,
        "density": 1.8958816489789805,
        "formula": "H3Se",
        "num_atoms": 8,
        "valid": true
      },
      {
        "category": "space_group",
        "timestep": 900,
        "source_condition": "space_group_cubic_fcc",
        "target_condition": "space_group_hexagonal",
        "trajectory_idx": 0,
        "space_group_number": 1,
        "space_group_symbol": "P1",
        "crystal_system": "triclinic",
        "lattice_a": 3.1051980222477997,
        "lattice_b": 5.309811256795277,
        "lattice_c": 5.966583251953125,
        "lattice_alpha": 94.66160006349874,
        "lattice_beta": 108.23149921782658,
        "lattice_gamma": 92.42304641705044,
        "volume": 92.89103785180286,
        "density": 1.7521510020215205,
        "formula": "H3F5",
        "num_atoms": 8,
        "valid": true
      },
      {
        "category": "space_group",
        "timestep": 950,
        "source_condition": "space_group_cubic_fcc",
        "target_condition": "space_group_hexagonal",
        "trajectory_idx": 0,
        "space_group_number": 1,
        "space_group_symbol": "P1",
        "crystal_system": "triclinic",
        "lattice_a": 4.7725746761322885,
        "lattice_b": 7.560719499563821,
        "lattice_c": 7.00794792175293,
        "lattice_alpha": 67.75981351196413,
        "lattice_beta": 86.30929609999792,
        "lattice_gamma": 87.69002577863678,
        "volume": 233.54267727070172,
        "density": 4.002320847254298,
        "formula": "MdH3SI2O",
        "num_atoms": 8,
        "valid": true
      },
      {
        "category": "space_group",
        "timestep": 600,
        "source_condition": "space_group_cubic_fcc",
        "target_condition": "space_group_tetragonal",
        "trajectory_idx": 0,
        "space_group_number": 8,
        "space_group_symbol": "Cm",
        "crystal_system": "monoclinic",
        "lattice_a": 6.28851045869593,
        "lattice_b": 6.283676003006734,
        "lattice_c": 6.291974067687988,
        "lattice_alpha": 60.27897230355293,
        "lattice_beta": 60.324573545966615,
        "lattice_gamma": 60.34293053192683,
        "volume": 177.06081836247256,
        "density": 12.794400955824976,
        "formula": "Hf7In",
        "num_atoms": 8,
        "valid": true
      },
      {
        "category": "space_group",
        "timestep": 800,
        "source_condition": "space_group_cubic_fcc",
        "target_condition": "space_group_tetragonal",
        "trajectory_idx": 0,
        "space_group_number": 1,
        "space_group_symbol": "P1",
        "crystal_system": "triclinic",
        "lattice_a": 4.518533868980628,
        "lattice_b": 4.703680985478313,
        "lattice_c": 5.285638332366943,
        "lattice_alpha": 116.4921681016611,
        "lattice_beta": 111.9137410014317,
        "lattice_gamma": 99.23981475637235,
        "volume": 85.73848222508452,
        "density": 2.6673989748274067,
        "formula": "AgBH5N",
        "num_atoms": 8,
        "valid": true
      },
      {
        "category": "space_group",
        "timestep": 900,
        "source_condition": "space_group_cubic_fcc",
        "target_condition": "space_group_tetragonal",
        "trajectory_idx": 0,
        "space_group_number": 1,
        "space_group_symbol": "P1",
        "crystal_system": "triclinic",
        "lattice_a": 4.634079100285153,
        "lattice_b": 5.209489483313743,
        "lattice_c": 7.598410606384277,
        "lattice_alpha": 107.85123341688757,
        "lattice_beta": 108.05546392705688,
        "lattice_gamma": 108.72547846061018,
        "volume": 147.422799771262,
        "density": 2.0826339498462074,
        "formula": "ClF3",
        "num_atoms": 8,
        "valid": true
      },
      {
        "category": "space_group",
        "timestep": 950,
        "source_condition": "space_group_cubic_fcc",
        "target_condition": "space_group_tetragonal",
        "trajectory_idx": 0,
        "space_group_number": 1,
        "space_group_symbol": "P1",
        "crystal_system": "triclinic",
        "lattice_a": 5.931203062724113,
        "lattice_b": 6.116221802835243,
        "lattice_c": 5.7231831550598145,
        "lattice_alpha": 97.47854774161807,
        "lattice_beta": 108.72465710281877,
        "lattice_gamma": 103.86885407485182,
        "volume": 185.9907060051088,
        "density": 2.159877350970275,
        "formula": "H5Se3",
        "num_atoms": 8,
        "valid": true
      },
      {
        "category": "space_group",
        "timestep": 600,
        "source_condition": "space_group_cubic_fcc",
        "target_condition": "space_group_orthorhombic",
        "trajectory_idx": 0,
        "space_group_number": 8,
        "space_group_symbol": "Cm",
        "crystal_system": "monoclinic",
        "lattice_a": 5.500763668375534,
        "lattice_b": 5.504684681474884,
        "lattice_c": 5.426007270812988,
        "lattice_alpha": 104.56050860287158,
        "lattice_beta": 104.84029544541826,
        "lattice_gamma": 99.12651428151672,
        "volume": 149.28755059795947,
        "density": 5.187592924731323,
        "formula": "Mg3Ge4Rh",
        "num_atoms": 8,
        "valid": true
      },
      {
        "category": "space_group",
        "timestep": 800,
        "source_condition": "space_group_cubic_fcc",
        "target_condition": "space_group_orthorhombic",
        "trajectory_idx": 0,
        "space_group_number": 1,
        "space_group_symbol": "P1",
        "crystal_system": "triclinic",
        "lattice_a": 5.03846795427749,
        "lattice_b": 5.046100987504973,
        "lattice_c": 5.007905960083008,
        "lattice_alpha": 114.07258631853578,
        "lattice_beta": 125.55069284199053,
        "lattice_gamma": 95.95704139045313,
        "volume": 84.03131663316849,
        "density": 1.6199473672908753,
        "formula": "AsH7",
        "num_atoms": 8,
        "valid": true
      },
      {
        "category": "space_group",
        "timestep": 900,
        "source_condition": "space_group_cubic_fcc",
        "target_condition": "space_group_orthorhombic",
        "trajectory_idx": 0,
        "space_group_number": 8,
        "space_group_symbol": "Cm",
        "crystal_system": "monoclinic",
        "lattice_a": 4.800714788122827,
        "lattice_b": 4.939827215079509,
        "lattice_c": 5.003329277038574,
        "lattice_alpha": 111.3084503524444,
        "lattice_beta": 72.21787028988207,
        "lattice_gamma": 119.98842135954342,
        "volume": 94.60962002273897,
        "density": 1.6676862567624497,
        "formula": "H3OF4",
        "num_atoms": 8,
        "valid": true
      },
      {
        "category": "space_group",
        "timestep": 950,
        "source_condition": "space_group_cubic_fcc",
        "target_condition": "space_group_orthorhombic",
        "trajectory_idx": 0,
        "space_group_number": 1,
        "space_group_symbol": "P1",
        "crystal_system": "triclinic",
        "lattice_a": 5.902340442211385,
        "lattice_b": 5.4994591325605615,
        "lattice_c": 4.993978977203369,
        "lattice_alpha": 64.93967620013669,
        "lattice_beta": 86.2567585725472,
        "lattice_gamma": 90.28094879195957,
        "volume": 146.43462478562589,
        "density": 3.9601874584151875,
        "formula": "HgTeH5O",
        "num_atoms": 8,
        "valid": true
      }
    ]
  },
  "success_analysis": {
    "dft_band_gap": {
      "total_experiments": 12,
      "target_conditions": 3,
      "by_target": {
        "dft_band_gap_metallic": {
          "total_attempts": 4,
          "successes": 0,
          "success_rate": 0.0,
          "target_space_group": null,
          "success_by_timestep": {}
        },
        "dft_band_gap_narrow_semiconductor": {
          "total_attempts": 4,
          "successes": 0,
          "success_rate": 0.0,
          "target_space_group": null,
          "success_by_timestep": {}
        },
        "dft_band_gap_wide_semiconductor": {
          "total_attempts": 4,
          "successes": 0,
          "success_rate": 0.0,
          "target_space_group": null,
          "success_by_timestep": {}
        }
      }
    },
    "energy_above_hull": {
      "total_experiments": 8,
      "target_conditions": 2,
      "by_target": {
        "energy_above_hull_stable": {
          "total_attempts": 4,
          "successes": 0,
          "success_rate": 0.0,
          "target_space_group": null,
          "success_by_timestep": {}
        },
        "energy_above_hull_unstable": {
          "total_attempts": 4,
          "successes": 0,
          "success_rate": 0.0,
          "target_space_group": null,
          "success_by_timestep": {}
        }
      }
    },
    "space_group": {
      "total_experiments": 16,
      "target_conditions": 4,
      "by_target": {
        "space_group_cubic_primitive": {
          "total_attempts": 4,
          "successes": 0,
          "success_rate": 0.0,
          "target_space_group": 221,
          "success_by_timestep": {}
        },
        "space_group_hexagonal": {
          "total_attempts": 4,
          "successes": 0,
          "success_rate": 0.0,
          "target_space_group": 194,
          "success_by_timestep": {}
        },
        "space_group_tetragonal": {
          "total_attempts": 4,
          "successes": 0,
          "success_rate": 0.0,
          "target_space_group": 139,
          "success_by_timestep": {}
        },
        "space_group_orthorhombic": {
          "total_attempts": 4,
          "successes": 0,
          "success_rate": 0.0,
          "target_space_group": 62,
          "success_by_timestep": {}
        }
      }
    }
  },
  "summary_stats": {
    "total_baseline": 3,
    "total_insertion": 36,
    "categories": [
      "dft_band_gap",
      "energy_above_hull",
      "space_group"
    ]
  }
}