{
  "job_info": {
    "source": "dft_band_gap_insulator",
    "target": "dft_band_gap_metallic",
    "step": "step_900",
    "trajectory": "trajectory_0",
    "structure_file": "generated_structures/cross_conditioned_late_insertion/step_900/dft_band_gap_insulator/dft_band_gap_metallic/trajectory_0/generated_crystals.extxyz"
  },
  "summary": {
    "total_structures": 1,
    "calculated_structures": 1,
    "successful_calculations": 0,
    "failed_calculations": 1
  },
  "results": [
    {
      "structure_id": 0,
      "formula": "H2F2",
      "num_atoms": 4,
      "elements": [
        "H",
        "F"
      ],
      "error": "setting an array element with a sequence. The requested array has an inhomogeneous shape after 1 dimensions. The detected shape was (2,) + inhomogeneous part.",
      "converged": false,
      "source_condition": "dft_band_gap_insulator",
      "target_condition": "dft_band_gap_metallic",
      "step": "step_900",
      "trajectory": "trajectory_0"
    }
  ]
}